V -t * -v 1.0a5 -a 0
A -t * -n 1 -p 0 -o 0x7fffffff -c 30 -a 1
A -t * -h 1 -m 1073741823 -s 0
c -t * -i 123 -n Blue
c -t * -i 456 -n Red
n -t * -a 4 -s 4 -S UP -v circle -c Red -i Red
n -t * -a 0 -s 0 -S UP -v circle -c Blue -i Blue
n -t * -a 5 -s 5 -S UP -v circle -c Blue -i Blue
n -t * -a 1 -s 1 -S UP -v circle -c Red -i Red
n -t * -a 2 -s 2 -S UP -v circle -c Green -i Green
n -t * -a 3 -s 3 -S UP -v circle -c Green -i Green
l -t * -s 0 -d 2 -S UP -r 1000000000 -D 0.050000000000000003 -c black -o right-down
l -t * -s 1 -d 2 -S UP -r 1000000000 -D 0.10000000000000001 -c black -o right-up
l -t * -s 2 -d 3 -S UP -r 20000000 -D 0.0050000000000000001 -c black -o right
l -t * -s 3 -d 4 -S UP -r 1000000000 -D 0.051000000000000004 -c black -o right-up
l -t * -s 3 -d 5 -S UP -r 1000000000 -D 0.058000000000000003 -c black -o right-down
+ -t 0.858449512223049 -s 1 -d 2 -p tcp -e 40 -c 456 -i 0 -a 456 -x {1.0 4.0 0 ------- null}
- -t 0.858449512223049 -s 1 -d 2 -p tcp -e 40 -c 456 -i 0 -a 456 -x {1.0 4.0 0 ------- null}
h -t 0.858449512223049 -s 1 -d 2 -p tcp -e 40 -c 456 -i 0 -a 456 -x {1.0 4.0 -1 ------- null}
r -t 0.958449832223049 -s 1 -d 2 -p tcp -e 40 -c 456 -i 0 -a 456 -x {1.0 4.0 0 ------- null}
+ -t 0.963449832223049 -s 2 -d 3 -p tcp -e 40 -c 456 -i 0 -a 456 -x {1.0 4.0 0 ------- null}
- -t 0.963449832223049 -s 2 -d 3 -p tcp -e 40 -c 456 -i 0 -a 456 -x {1.0 4.0 0 ------- null}
h -t 0.963449832223049 -s 2 -d 3 -p tcp -e 40 -c 456 -i 0 -a 456 -x {1.0 4.0 -1 ------- null}
r -t 0.968465832223049 -s 2 -d 3 -p tcp -e 40 -c 456 -i 0 -a 456 -x {1.0 4.0 0 ------- null}
+ -t 0.973465832223049 -s 3 -d 4 -p tcp -e 40 -c 456 -i 0 -a 456 -x {1.0 4.0 0 ------- null}
- -t 0.973465832223049 -s 3 -d 4 -p tcp -e 40 -c 456 -i 0 -a 456 -x {1.0 4.0 0 ------- null}
h -t 0.973465832223049 -s 3 -d 4 -p tcp -e 40 -c 456 -i 0 -a 456 -x {1.0 4.0 -1 ------- null}
r -t 1.02446615222305 -s 3 -d 4 -p tcp -e 40 -c 456 -i 0 -a 456 -x {1.0 4.0 0 ------- null}
+ -t 1.02446615222305 -s 4 -d 3 -p ack -e 40 -c 456 -i 1 -a 456 -x {4.0 1.0 0 ------- null}
- -t 1.02446615222305 -s 4 -d 3 -p ack -e 40 -c 456 -i 1 -a 456 -x {4.0 1.0 0 ------- null}
h -t 1.02446615222305 -s 4 -d 3 -p ack -e 40 -c 456 -i 1 -a 456 -x {4.0 1.0 -1 ------- null}
r -t 1.07546647222305 -s 4 -d 3 -p ack -e 40 -c 456 -i 1 -a 456 -x {4.0 1.0 0 ------- null}
+ -t 1.08046647222305 -s 3 -d 2 -p ack -e 40 -c 456 -i 1 -a 456 -x {4.0 1.0 0 ------- null}
- -t 1.08046647222305 -s 3 -d 2 -p ack -e 40 -c 456 -i 1 -a 456 -x {4.0 1.0 0 ------- null}
h -t 1.08046647222305 -s 3 -d 2 -p ack -e 40 -c 456 -i 1 -a 456 -x {4.0 1.0 -1 ------- null}
r -t 1.08548247222305 -s 3 -d 2 -p ack -e 40 -c 456 -i 1 -a 456 -x {4.0 1.0 0 ------- null}
+ -t 1.09048247222305 -s 2 -d 1 -p ack -e 40 -c 456 -i 1 -a 456 -x {4.0 1.0 0 ------- null}
- -t 1.09048247222305 -s 2 -d 1 -p ack -e 40 -c 456 -i 1 -a 456 -x {4.0 1.0 0 ------- null}
h -t 1.09048247222305 -s 2 -d 1 -p ack -e 40 -c 456 -i 1 -a 456 -x {4.0 1.0 -1 ------- null}
r -t 1.19048279222305 -s 2 -d 1 -p ack -e 40 -c 456 -i 1 -a 456 -x {4.0 1.0 0 ------- null}
+ -t 1.19048279222305 -s 1 -d 2 -p tcp -e 1040 -c 456 -i 2 -a 456 -x {1.0 4.0 1 ------- null}
- -t 1.19048279222305 -s 1 -d 2 -p tcp -e 1040 -c 456 -i 2 -a 456 -x {1.0 4.0 1 ------- null}
h -t 1.19048279222305 -s 1 -d 2 -p tcp -e 1040 -c 456 -i 2 -a 456 -x {1.0 4.0 -1 ------- null}
r -t 1.29049111222305 -s 1 -d 2 -p tcp -e 1040 -c 456 -i 2 -a 456 -x {1.0 4.0 1 ------- null}
+ -t 1.29549111222305 -s 2 -d 3 -p tcp -e 1040 -c 456 -i 2 -a 456 -x {1.0 4.0 1 ------- null}
- -t 1.29549111222305 -s 2 -d 3 -p tcp -e 1040 -c 456 -i 2 -a 456 -x {1.0 4.0 1 ------- null}
h -t 1.29549111222305 -s 2 -d 3 -p tcp -e 1040 -c 456 -i 2 -a 456 -x {1.0 4.0 -1 ------- null}
r -t 1.30090711222305 -s 2 -d 3 -p tcp -e 1040 -c 456 -i 2 -a 456 -x {1.0 4.0 1 ------- null}
+ -t 1.30590711222305 -s 3 -d 4 -p tcp -e 1040 -c 456 -i 2 -a 456 -x {1.0 4.0 1 ------- null}
- -t 1.30590711222305 -s 3 -d 4 -p tcp -e 1040 -c 456 -i 2 -a 456 -x {1.0 4.0 1 ------- null}
h -t 1.30590711222305 -s 3 -d 4 -p tcp -e 1040 -c 456 -i 2 -a 456 -x {1.0 4.0 -1 ------- null}
r -t 1.35691543222305 -s 3 -d 4 -p tcp -e 1040 -c 456 -i 2 -a 456 -x {1.0 4.0 1 ------- null}
+ -t 1.35691543222305 -s 4 -d 3 -p ack -e 40 -c 456 -i 3 -a 456 -x {4.0 1.0 1 ------- null}
- -t 1.35691543222305 -s 4 -d 3 -p ack -e 40 -c 456 -i 3 -a 456 -x {4.0 1.0 1 ------- null}
h -t 1.35691543222305 -s 4 -d 3 -p ack -e 40 -c 456 -i 3 -a 456 -x {4.0 1.0 -1 ------- null}
r -t 1.40791575222305 -s 4 -d 3 -p ack -e 40 -c 456 -i 3 -a 456 -x {4.0 1.0 1 ------- null}
+ -t 1.41291575222305 -s 3 -d 2 -p ack -e 40 -c 456 -i 3 -a 456 -x {4.0 1.0 1 ------- null}
- -t 1.41291575222305 -s 3 -d 2 -p ack -e 40 -c 456 -i 3 -a 456 -x {4.0 1.0 1 ------- null}
h -t 1.41291575222305 -s 3 -d 2 -p ack -e 40 -c 456 -i 3 -a 456 -x {4.0 1.0 -1 ------- null}
r -t 1.41793175222305 -s 3 -d 2 -p ack -e 40 -c 456 -i 3 -a 456 -x {4.0 1.0 1 ------- null}
+ -t 1.42293175222305 -s 2 -d 1 -p ack -e 40 -c 456 -i 3 -a 456 -x {4.0 1.0 1 ------- null}
- -t 1.42293175222305 -s 2 -d 1 -p ack -e 40 -c 456 -i 3 -a 456 -x {4.0 1.0 1 ------- null}
h -t 1.42293175222305 -s 2 -d 1 -p ack -e 40 -c 456 -i 3 -a 456 -x {4.0 1.0 -1 ------- null}
r -t 1.52293207222305 -s 2 -d 1 -p ack -e 40 -c 456 -i 3 -a 456 -x {4.0 1.0 1 ------- null}
+ -t 1.65989270030589 -s 0 -d 2 -p tcp -e 40 -c 123 -i 4 -a 123 -x {0.0 5.0 0 ------- null}
- -t 1.65989270030589 -s 0 -d 2 -p tcp -e 40 -c 123 -i 4 -a 123 -x {0.0 5.0 0 ------- null}
h -t 1.65989270030589 -s 0 -d 2 -p tcp -e 40 -c 123 -i 4 -a 123 -x {0.0 5.0 -1 ------- null}
r -t 1.70989302030589 -s 0 -d 2 -p tcp -e 40 -c 123 -i 4 -a 123 -x {0.0 5.0 0 ------- null}
+ -t 1.71489302030589 -s 2 -d 3 -p tcp -e 40 -c 123 -i 4 -a 123 -x {0.0 5.0 0 ------- null}
- -t 1.71489302030589 -s 2 -d 3 -p tcp -e 40 -c 123 -i 4 -a 123 -x {0.0 5.0 0 ------- null}
h -t 1.71489302030589 -s 2 -d 3 -p tcp -e 40 -c 123 -i 4 -a 123 -x {0.0 5.0 -1 ------- null}
r -t 1.71990902030589 -s 2 -d 3 -p tcp -e 40 -c 123 -i 4 -a 123 -x {0.0 5.0 0 ------- null}
+ -t 1.72490902030589 -s 3 -d 5 -p tcp -e 40 -c 123 -i 4 -a 123 -x {0.0 5.0 0 ------- null}
- -t 1.72490902030589 -s 3 -d 5 -p tcp -e 40 -c 123 -i 4 -a 123 -x {0.0 5.0 0 ------- null}
h -t 1.72490902030589 -s 3 -d 5 -p tcp -e 40 -c 123 -i 4 -a 123 -x {0.0 5.0 -1 ------- null}
r -t 1.78290934030589 -s 3 -d 5 -p tcp -e 40 -c 123 -i 4 -a 123 -x {0.0 5.0 0 ------- null}
+ -t 1.78290934030589 -s 5 -d 3 -p ack -e 40 -c 123 -i 5 -a 123 -x {5.0 0.0 0 ------- null}
- -t 1.78290934030589 -s 5 -d 3 -p ack -e 40 -c 123 -i 5 -a 123 -x {5.0 0.0 0 ------- null}
h -t 1.78290934030589 -s 5 -d 3 -p ack -e 40 -c 123 -i 5 -a 123 -x {5.0 0.0 -1 ------- null}
+ -t 1.79777605958575 -s 1 -d 2 -p tcp -e 1040 -c 456 -i 6 -a 456 -x {1.0 4.0 2 ------- null}
- -t 1.79777605958575 -s 1 -d 2 -p tcp -e 1040 -c 456 -i 6 -a 456 -x {1.0 4.0 2 ------- null}
h -t 1.79777605958575 -s 1 -d 2 -p tcp -e 1040 -c 456 -i 6 -a 456 -x {1.0 4.0 -1 ------- null}
r -t 1.84090966030589 -s 5 -d 3 -p ack -e 40 -c 123 -i 5 -a 123 -x {5.0 0.0 0 ------- null}
+ -t 1.84590966030589 -s 3 -d 2 -p ack -e 40 -c 123 -i 5 -a 123 -x {5.0 0.0 0 ------- null}
- -t 1.84590966030589 -s 3 -d 2 -p ack -e 40 -c 123 -i 5 -a 123 -x {5.0 0.0 0 ------- null}
h -t 1.84590966030589 -s 3 -d 2 -p ack -e 40 -c 123 -i 5 -a 123 -x {5.0 0.0 -1 ------- null}
r -t 1.85092566030589 -s 3 -d 2 -p ack -e 40 -c 123 -i 5 -a 123 -x {5.0 0.0 0 ------- null}
+ -t 1.85592566030589 -s 2 -d 0 -p ack -e 40 -c 123 -i 5 -a 123 -x {5.0 0.0 0 ------- null}
- -t 1.85592566030589 -s 2 -d 0 -p ack -e 40 -c 123 -i 5 -a 123 -x {5.0 0.0 0 ------- null}
h -t 1.85592566030589 -s 2 -d 0 -p ack -e 40 -c 123 -i 5 -a 123 -x {5.0 0.0 -1 ------- null}
r -t 1.89778437958575 -s 1 -d 2 -p tcp -e 1040 -c 456 -i 6 -a 456 -x {1.0 4.0 2 ------- null}
+ -t 1.90278437958575 -s 2 -d 3 -p tcp -e 1040 -c 456 -i 6 -a 456 -x {1.0 4.0 2 ------- null}
- -t 1.90278437958575 -s 2 -d 3 -p tcp -e 1040 -c 456 -i 6 -a 456 -x {1.0 4.0 2 ------- null}
h -t 1.90278437958575 -s 2 -d 3 -p tcp -e 1040 -c 456 -i 6 -a 456 -x {1.0 4.0 -1 ------- null}
r -t 1.90592598030589 -s 2 -d 0 -p ack -e 40 -c 123 -i 5 -a 123 -x {5.0 0.0 0 ------- null}
+ -t 1.90592598030589 -s 0 -d 2 -p tcp -e 1040 -c 123 -i 7 -a 123 -x {0.0 5.0 1 ------- null}
- -t 1.90592598030589 -s 0 -d 2 -p tcp -e 1040 -c 123 -i 7 -a 123 -x {0.0 5.0 1 ------- null}
h -t 1.90592598030589 -s 0 -d 2 -p tcp -e 1040 -c 123 -i 7 -a 123 -x {0.0 5.0 -1 ------- null}
r -t 1.90820037958575 -s 2 -d 3 -p tcp -e 1040 -c 456 -i 6 -a 456 -x {1.0 4.0 2 ------- null}
+ -t 1.91320037958575 -s 3 -d 4 -p tcp -e 1040 -c 456 -i 6 -a 456 -x {1.0 4.0 2 ------- null}
- -t 1.91320037958575 -s 3 -d 4 -p tcp -e 1040 -c 456 -i 6 -a 456 -x {1.0 4.0 2 ------- null}
h -t 1.91320037958575 -s 3 -d 4 -p tcp -e 1040 -c 456 -i 6 -a 456 -x {1.0 4.0 -1 ------- null}
r -t 1.95593430030589 -s 0 -d 2 -p tcp -e 1040 -c 123 -i 7 -a 123 -x {0.0 5.0 1 ------- null}
+ -t 1.96093430030589 -s 2 -d 3 -p tcp -e 1040 -c 123 -i 7 -a 123 -x {0.0 5.0 1 ------- null}
- -t 1.96093430030589 -s 2 -d 3 -p tcp -e 1040 -c 123 -i 7 -a 123 -x {0.0 5.0 1 ------- null}
h -t 1.96093430030589 -s 2 -d 3 -p tcp -e 1040 -c 123 -i 7 -a 123 -x {0.0 5.0 -1 ------- null}
r -t 1.96420869958575 -s 3 -d 4 -p tcp -e 1040 -c 456 -i 6 -a 456 -x {1.0 4.0 2 ------- null}
+ -t 1.96420869958575 -s 4 -d 3 -p ack -e 40 -c 456 -i 8 -a 456 -x {4.0 1.0 2 ------- null}
- -t 1.96420869958575 -s 4 -d 3 -p ack -e 40 -c 456 -i 8 -a 456 -x {4.0 1.0 2 ------- null}
h -t 1.96420869958575 -s 4 -d 3 -p ack -e 40 -c 456 -i 8 -a 456 -x {4.0 1.0 -1 ------- null}
r -t 1.96635030030589 -s 2 -d 3 -p tcp -e 1040 -c 123 -i 7 -a 123 -x {0.0 5.0 1 ------- null}
+ -t 1.97135030030589 -s 3 -d 5 -p tcp -e 1040 -c 123 -i 7 -a 123 -x {0.0 5.0 1 ------- null}
- -t 1.97135030030589 -s 3 -d 5 -p tcp -e 1040 -c 123 -i 7 -a 123 -x {0.0 5.0 1 ------- null}
h -t 1.97135030030589 -s 3 -d 5 -p tcp -e 1040 -c 123 -i 7 -a 123 -x {0.0 5.0 -1 ------- null}
r -t 2.01520901958575 -s 4 -d 3 -p ack -e 40 -c 456 -i 8 -a 456 -x {4.0 1.0 2 ------- null}
+ -t 2.02020901958575 -s 3 -d 2 -p ack -e 40 -c 456 -i 8 -a 456 -x {4.0 1.0 2 ------- null}
- -t 2.02020901958575 -s 3 -d 2 -p ack -e 40 -c 456 -i 8 -a 456 -x {4.0 1.0 2 ------- null}
h -t 2.02020901958575 -s 3 -d 2 -p ack -e 40 -c 456 -i 8 -a 456 -x {4.0 1.0 -1 ------- null}
r -t 2.02522501958575 -s 3 -d 2 -p ack -e 40 -c 456 -i 8 -a 456 -x {4.0 1.0 2 ------- null}
r -t 2.02935862030589 -s 3 -d 5 -p tcp -e 1040 -c 123 -i 7 -a 123 -x {0.0 5.0 1 ------- null}
+ -t 2.02935862030589 -s 5 -d 3 -p ack -e 40 -c 123 -i 9 -a 123 -x {5.0 0.0 1 ------- null}
- -t 2.02935862030589 -s 5 -d 3 -p ack -e 40 -c 123 -i 9 -a 123 -x {5.0 0.0 1 ------- null}
h -t 2.02935862030589 -s 5 -d 3 -p ack -e 40 -c 123 -i 9 -a 123 -x {5.0 0.0 -1 ------- null}
+ -t 2.03022501958575 -s 2 -d 1 -p ack -e 40 -c 456 -i 8 -a 456 -x {4.0 1.0 2 ------- null}
- -t 2.03022501958575 -s 2 -d 1 -p ack -e 40 -c 456 -i 8 -a 456 -x {4.0 1.0 2 ------- null}
h -t 2.03022501958575 -s 2 -d 1 -p ack -e 40 -c 456 -i 8 -a 456 -x {4.0 1.0 -1 ------- null}
r -t 2.08735894030589 -s 5 -d 3 -p ack -e 40 -c 123 -i 9 -a 123 -x {5.0 0.0 1 ------- null}
+ -t 2.09195687734576 -s 1 -d 2 -p tcp -e 1040 -c 456 -i 10 -a 456 -x {1.0 4.0 3 ------- null}
- -t 2.09195687734576 -s 1 -d 2 -p tcp -e 1040 -c 456 -i 10 -a 456 -x {1.0 4.0 3 ------- null}
h -t 2.09195687734576 -s 1 -d 2 -p tcp -e 1040 -c 456 -i 10 -a 456 -x {1.0 4.0 -1 ------- null}
+ -t 2.09235894030589 -s 3 -d 2 -p ack -e 40 -c 123 -i 9 -a 123 -x {5.0 0.0 1 ------- null}
- -t 2.09235894030589 -s 3 -d 2 -p ack -e 40 -c 123 -i 9 -a 123 -x {5.0 0.0 1 ------- null}
h -t 2.09235894030589 -s 3 -d 2 -p ack -e 40 -c 123 -i 9 -a 123 -x {5.0 0.0 -1 ------- null}
r -t 2.09737494030589 -s 3 -d 2 -p ack -e 40 -c 123 -i 9 -a 123 -x {5.0 0.0 1 ------- null}
+ -t 2.10237494030589 -s 2 -d 0 -p ack -e 40 -c 123 -i 9 -a 123 -x {5.0 0.0 1 ------- null}
- -t 2.10237494030589 -s 2 -d 0 -p ack -e 40 -c 123 -i 9 -a 123 -x {5.0 0.0 1 ------- null}
h -t 2.10237494030589 -s 2 -d 0 -p ack -e 40 -c 123 -i 9 -a 123 -x {5.0 0.0 -1 ------- null}
r -t 2.13022533958575 -s 2 -d 1 -p ack -e 40 -c 456 -i 8 -a 456 -x {4.0 1.0 2 ------- null}
r -t 2.15237526030589 -s 2 -d 0 -p ack -e 40 -c 123 -i 9 -a 123 -x {5.0 0.0 1 ------- null}
r -t 2.19196519734576 -s 1 -d 2 -p tcp -e 1040 -c 456 -i 10 -a 456 -x {1.0 4.0 3 ------- null}
+ -t 2.19696519734576 -s 2 -d 3 -p tcp -e 1040 -c 456 -i 10 -a 456 -x {1.0 4.0 3 ------- null}
- -t 2.19696519734576 -s 2 -d 3 -p tcp -e 1040 -c 456 -i 10 -a 456 -x {1.0 4.0 3 ------- null}
h -t 2.19696519734576 -s 2 -d 3 -p tcp -e 1040 -c 456 -i 10 -a 456 -x {1.0 4.0 -1 ------- null}
r -t 2.20238119734576 -s 2 -d 3 -p tcp -e 1040 -c 456 -i 10 -a 456 -x {1.0 4.0 3 ------- null}
+ -t 2.20738119734576 -s 3 -d 4 -p tcp -e 1040 -c 456 -i 10 -a 456 -x {1.0 4.0 3 ------- null}
- -t 2.20738119734576 -s 3 -d 4 -p tcp -e 1040 -c 456 -i 10 -a 456 -x {1.0 4.0 3 ------- null}
h -t 2.20738119734576 -s 3 -d 4 -p tcp -e 1040 -c 456 -i 10 -a 456 -x {1.0 4.0 -1 ------- null}
r -t 2.25838951734576 -s 3 -d 4 -p tcp -e 1040 -c 456 -i 10 -a 456 -x {1.0 4.0 3 ------- null}
+ -t 2.25838951734576 -s 4 -d 3 -p ack -e 40 -c 456 -i 11 -a 456 -x {4.0 1.0 3 ------- null}
- -t 2.25838951734576 -s 4 -d 3 -p ack -e 40 -c 456 -i 11 -a 456 -x {4.0 1.0 3 ------- null}
h -t 2.25838951734576 -s 4 -d 3 -p ack -e 40 -c 456 -i 11 -a 456 -x {4.0 1.0 -1 ------- null}
r -t 2.30938983734576 -s 4 -d 3 -p ack -e 40 -c 456 -i 11 -a 456 -x {4.0 1.0 3 ------- null}
+ -t 2.31438983734576 -s 3 -d 2 -p ack -e 40 -c 456 -i 11 -a 456 -x {4.0 1.0 3 ------- null}
- -t 2.31438983734576 -s 3 -d 2 -p ack -e 40 -c 456 -i 11 -a 456 -x {4.0 1.0 3 ------- null}
h -t 2.31438983734576 -s 3 -d 2 -p ack -e 40 -c 456 -i 11 -a 456 -x {4.0 1.0 -1 ------- null}
r -t 2.31940583734576 -s 3 -d 2 -p ack -e 40 -c 456 -i 11 -a 456 -x {4.0 1.0 3 ------- null}
+ -t 2.32440583734576 -s 2 -d 1 -p ack -e 40 -c 456 -i 11 -a 456 -x {4.0 1.0 3 ------- null}
- -t 2.32440583734576 -s 2 -d 1 -p ack -e 40 -c 456 -i 11 -a 456 -x {4.0 1.0 3 ------- null}
h -t 2.32440583734576 -s 2 -d 1 -p ack -e 40 -c 456 -i 11 -a 456 -x {4.0 1.0 -1 ------- null}
r -t 2.42440615734576 -s 2 -d 1 -p ack -e 40 -c 456 -i 11 -a 456 -x {4.0 1.0 3 ------- null}
+ -t 2.50263324378537 -s 0 -d 2 -p tcp -e 1040 -c 123 -i 12 -a 123 -x {0.0 5.0 2 ------- null}
- -t 2.50263324378537 -s 0 -d 2 -p tcp -e 1040 -c 123 -i 12 -a 123 -x {0.0 5.0 2 ------- null}
h -t 2.50263324378537 -s 0 -d 2 -p tcp -e 1040 -c 123 -i 12 -a 123 -x {0.0 5.0 -1 ------- null}
r -t 2.55264156378537 -s 0 -d 2 -p tcp -e 1040 -c 123 -i 12 -a 123 -x {0.0 5.0 2 ------- null}
+ -t 2.55764156378537 -s 2 -d 3 -p tcp -e 1040 -c 123 -i 12 -a 123 -x {0.0 5.0 2 ------- null}
- -t 2.55764156378537 -s 2 -d 3 -p tcp -e 1040 -c 123 -i 12 -a 123 -x {0.0 5.0 2 ------- null}
h -t 2.55764156378537 -s 2 -d 3 -p tcp -e 1040 -c 123 -i 12 -a 123 -x {0.0 5.0 -1 ------- null}
r -t 2.56305756378537 -s 2 -d 3 -p tcp -e 1040 -c 123 -i 12 -a 123 -x {0.0 5.0 2 ------- null}
+ -t 3.11263324378537 -s 0 -d 2 -p tcp -e 1040 -c 123 -i 13 -a 123 -x {0.0 5.0 2 ---A--- null}
- -t 3.11263324378537 -s 0 -d 2 -p tcp -e 1040 -c 123 -i 13 -a 123 -x {0.0 5.0 2 ---A--- null}
h -t 3.11263324378537 -s 0 -d 2 -p tcp -e 1040 -c 123 -i 13 -a 123 -x {0.0 5.0 -1 ---A--- null}
r -t 3.16264156378537 -s 0 -d 2 -p tcp -e 1040 -c 123 -i 13 -a 123 -x {0.0 5.0 2 ---A--- null}
+ -t 3.16764156378537 -s 2 -d 3 -p tcp -e 1040 -c 123 -i 13 -a 123 -x {0.0 5.0 2 ---A--- null}
- -t 3.16764156378537 -s 2 -d 3 -p tcp -e 1040 -c 123 -i 13 -a 123 -x {0.0 5.0 2 ---A--- null}
h -t 3.16764156378537 -s 2 -d 3 -p tcp -e 1040 -c 123 -i 13 -a 123 -x {0.0 5.0 -1 ---A--- null}
r -t 3.17305756378537 -s 2 -d 3 -p tcp -e 1040 -c 123 -i 13 -a 123 -x {0.0 5.0 2 ---A--- null}
+ -t 3.17805756378537 -s 3 -d 5 -p tcp -e 1040 -c 123 -i 13 -a 123 -x {0.0 5.0 2 ---A--- null}
- -t 3.17805756378537 -s 3 -d 5 -p tcp -e 1040 -c 123 -i 13 -a 123 -x {0.0 5.0 2 ---A--- null}
h -t 3.17805756378537 -s 3 -d 5 -p tcp -e 1040 -c 123 -i 13 -a 123 -x {0.0 5.0 -1 ---A--- null}
r -t 3.23606588378537 -s 3 -d 5 -p tcp -e 1040 -c 123 -i 13 -a 123 -x {0.0 5.0 2 ---A--- null}
+ -t 3.23606588378537 -s 5 -d 3 -p ack -e 40 -c 123 -i 14 -a 123 -x {5.0 0.0 2 ------- null}
- -t 3.23606588378537 -s 5 -d 3 -p ack -e 40 -c 123 -i 14 -a 123 -x {5.0 0.0 2 ------- null}
h -t 3.23606588378537 -s 5 -d 3 -p ack -e 40 -c 123 -i 14 -a 123 -x {5.0 0.0 -1 ------- null}
r -t 3.29406620378537 -s 5 -d 3 -p ack -e 40 -c 123 -i 14 -a 123 -x {5.0 0.0 2 ------- null}
+ -t 3.29906620378537 -s 3 -d 2 -p ack -e 40 -c 123 -i 14 -a 123 -x {5.0 0.0 2 ------- null}
- -t 3.29906620378537 -s 3 -d 2 -p ack -e 40 -c 123 -i 14 -a 123 -x {5.0 0.0 2 ------- null}
h -t 3.29906620378537 -s 3 -d 2 -p ack -e 40 -c 123 -i 14 -a 123 -x {5.0 0.0 -1 ------- null}
r -t 3.30408220378537 -s 3 -d 2 -p ack -e 40 -c 123 -i 14 -a 123 -x {5.0 0.0 2 ------- null}
+ -t 3.30908220378537 -s 2 -d 0 -p ack -e 40 -c 123 -i 14 -a 123 -x {5.0 0.0 2 ------- null}
- -t 3.30908220378537 -s 2 -d 0 -p ack -e 40 -c 123 -i 14 -a 123 -x {5.0 0.0 2 ------- null}
h -t 3.30908220378537 -s 2 -d 0 -p ack -e 40 -c 123 -i 14 -a 123 -x {5.0 0.0 -1 ------- null}
r -t 3.35908252378537 -s 2 -d 0 -p ack -e 40 -c 123 -i 14 -a 123 -x {5.0 0.0 2 ------- null}
+ -t 3.86362744461188 -s 1 -d 2 -p tcp -e 1040 -c 456 -i 15 -a 456 -x {1.0 4.0 4 ---A--- null}
- -t 3.86362744461188 -s 1 -d 2 -p tcp -e 1040 -c 456 -i 15 -a 456 -x {1.0 4.0 4 ---A--- null}
h -t 3.86362744461188 -s 1 -d 2 -p tcp -e 1040 -c 456 -i 15 -a 456 -x {1.0 4.0 -1 ---A--- null}
r -t 3.96363576461188 -s 1 -d 2 -p tcp -e 1040 -c 456 -i 15 -a 456 -x {1.0 4.0 4 ---A--- null}
+ -t 3.96863576461188 -s 2 -d 3 -p tcp -e 1040 -c 456 -i 15 -a 456 -x {1.0 4.0 4 ---A--- null}
- -t 3.96863576461188 -s 2 -d 3 -p tcp -e 1040 -c 456 -i 15 -a 456 -x {1.0 4.0 4 ---A--- null}
h -t 3.96863576461188 -s 2 -d 3 -p tcp -e 1040 -c 456 -i 15 -a 456 -x {1.0 4.0 -1 ---A--- null}
r -t 3.97405176461188 -s 2 -d 3 -p tcp -e 1040 -c 456 -i 15 -a 456 -x {1.0 4.0 4 ---A--- null}
+ -t 3.97905176461188 -s 3 -d 4 -p tcp -e 1040 -c 456 -i 15 -a 456 -x {1.0 4.0 4 ---A--- null}
- -t 3.97905176461188 -s 3 -d 4 -p tcp -e 1040 -c 456 -i 15 -a 456 -x {1.0 4.0 4 ---A--- null}
h -t 3.97905176461188 -s 3 -d 4 -p tcp -e 1040 -c 456 -i 15 -a 456 -x {1.0 4.0 -1 ---A--- null}
r -t 4.03006008461188 -s 3 -d 4 -p tcp -e 1040 -c 456 -i 15 -a 456 -x {1.0 4.0 4 ---A--- null}
+ -t 4.03006008461188 -s 4 -d 3 -p ack -e 40 -c 456 -i 16 -a 456 -x {4.0 1.0 4 ------- null}
- -t 4.03006008461188 -s 4 -d 3 -p ack -e 40 -c 456 -i 16 -a 456 -x {4.0 1.0 4 ------- null}
h -t 4.03006008461188 -s 4 -d 3 -p ack -e 40 -c 456 -i 16 -a 456 -x {4.0 1.0 -1 ------- null}
r -t 4.08106040461188 -s 4 -d 3 -p ack -e 40 -c 456 -i 16 -a 456 -x {4.0 1.0 4 ------- null}
+ -t 4.08606040461188 -s 3 -d 2 -p ack -e 40 -c 456 -i 16 -a 456 -x {4.0 1.0 4 ------- null}
- -t 4.08606040461188 -s 3 -d 2 -p ack -e 40 -c 456 -i 16 -a 456 -x {4.0 1.0 4 ------- null}
h -t 4.08606040461188 -s 3 -d 2 -p ack -e 40 -c 456 -i 16 -a 456 -x {4.0 1.0 -1 ------- null}
r -t 4.09107640461188 -s 3 -d 2 -p ack -e 40 -c 456 -i 16 -a 456 -x {4.0 1.0 4 ------- null}
+ -t 4.09607640461188 -s 2 -d 1 -p ack -e 40 -c 456 -i 16 -a 456 -x {4.0 1.0 4 ------- null}
- -t 4.09607640461188 -s 2 -d 1 -p ack -e 40 -c 456 -i 16 -a 456 -x {4.0 1.0 4 ------- null}
h -t 4.09607640461188 -s 2 -d 1 -p ack -e 40 -c 456 -i 16 -a 456 -x {4.0 1.0 -1 ------- null}
r -t 4.19607672461188 -s 2 -d 1 -p ack -e 40 -c 456 -i 16 -a 456 -x {4.0 1.0 4 ------- null}
+ -t 4.25381471722492 -s 0 -d 2 -p tcp -e 1040 -c 123 -i 17 -a 123 -x {0.0 5.0 3 ------- null}
- -t 4.25381471722492 -s 0 -d 2 -p tcp -e 1040 -c 123 -i 17 -a 123 -x {0.0 5.0 3 ------- null}
h -t 4.25381471722492 -s 0 -d 2 -p tcp -e 1040 -c 123 -i 17 -a 123 -x {0.0 5.0 -1 ------- null}
r -t 4.30382303722492 -s 0 -d 2 -p tcp -e 1040 -c 123 -i 17 -a 123 -x {0.0 5.0 3 ------- null}
+ -t 4.30882303722492 -s 2 -d 3 -p tcp -e 1040 -c 123 -i 17 -a 123 -x {0.0 5.0 3 ------- null}
- -t 4.30882303722492 -s 2 -d 3 -p tcp -e 1040 -c 123 -i 17 -a 123 -x {0.0 5.0 3 ------- null}
h -t 4.30882303722492 -s 2 -d 3 -p tcp -e 1040 -c 123 -i 17 -a 123 -x {0.0 5.0 -1 ------- null}
r -t 4.31423903722492 -s 2 -d 3 -p tcp -e 1040 -c 123 -i 17 -a 123 -x {0.0 5.0 3 ------- null}
+ -t 4.31923903722492 -s 3 -d 5 -p tcp -e 1040 -c 123 -i 17 -a 123 -x {0.0 5.0 3 ------- null}
- -t 4.31923903722492 -s 3 -d 5 -p tcp -e 1040 -c 123 -i 17 -a 123 -x {0.0 5.0 3 ------- null}
h -t 4.31923903722492 -s 3 -d 5 -p tcp -e 1040 -c 123 -i 17 -a 123 -x {0.0 5.0 -1 ------- null}
r -t 4.37724735722492 -s 3 -d 5 -p tcp -e 1040 -c 123 -i 17 -a 123 -x {0.0 5.0 3 ------- null}
+ -t 4.37724735722492 -s 5 -d 3 -p ack -e 40 -c 123 -i 18 -a 123 -x {5.0 0.0 3 ------- null}
- -t 4.37724735722492 -s 5 -d 3 -p ack -e 40 -c 123 -i 18 -a 123 -x {5.0 0.0 3 ------- null}
h -t 4.37724735722492 -s 5 -d 3 -p ack -e 40 -c 123 -i 18 -a 123 -x {5.0 0.0 -1 ------- null}
r -t 4.43524767722492 -s 5 -d 3 -p ack -e 40 -c 123 -i 18 -a 123 -x {5.0 0.0 3 ------- null}
+ -t 4.44024767722492 -s 3 -d 2 -p ack -e 40 -c 123 -i 18 -a 123 -x {5.0 0.0 3 ------- null}
- -t 4.44024767722492 -s 3 -d 2 -p ack -e 40 -c 123 -i 18 -a 123 -x {5.0 0.0 3 ------- null}
h -t 4.44024767722492 -s 3 -d 2 -p ack -e 40 -c 123 -i 18 -a 123 -x {5.0 0.0 -1 ------- null}
r -t 4.44526367722492 -s 3 -d 2 -p ack -e 40 -c 123 -i 18 -a 123 -x {5.0 0.0 3 ------- null}
+ -t 4.45026367722492 -s 2 -d 0 -p ack -e 40 -c 123 -i 18 -a 123 -x {5.0 0.0 3 ------- null}
- -t 4.45026367722492 -s 2 -d 0 -p ack -e 40 -c 123 -i 18 -a 123 -x {5.0 0.0 3 ------- null}
h -t 4.45026367722492 -s 2 -d 0 -p ack -e 40 -c 123 -i 18 -a 123 -x {5.0 0.0 -1 ------- null}
r -t 4.50026399722492 -s 2 -d 0 -p ack -e 40 -c 123 -i 18 -a 123 -x {5.0 0.0 3 ------- null}
+ -t 4.72507558399363 -s 0 -d 2 -p tcp -e 1040 -c 123 -i 19 -a 123 -x {0.0 5.0 4 ------- null}
- -t 4.72507558399363 -s 0 -d 2 -p tcp -e 1040 -c 123 -i 19 -a 123 -x {0.0 5.0 4 ------- null}
h -t 4.72507558399363 -s 0 -d 2 -p tcp -e 1040 -c 123 -i 19 -a 123 -x {0.0 5.0 -1 ------- null}
r -t 4.77508390399363 -s 0 -d 2 -p tcp -e 1040 -c 123 -i 19 -a 123 -x {0.0 5.0 4 ------- null}
+ -t 4.78008390399363 -s 2 -d 3 -p tcp -e 1040 -c 123 -i 19 -a 123 -x {0.0 5.0 4 ------- null}
- -t 4.78008390399363 -s 2 -d 3 -p tcp -e 1040 -c 123 -i 19 -a 123 -x {0.0 5.0 4 ------- null}
h -t 4.78008390399363 -s 2 -d 3 -p tcp -e 1040 -c 123 -i 19 -a 123 -x {0.0 5.0 -1 ------- null}
r -t 4.78549990399363 -s 2 -d 3 -p tcp -e 1040 -c 123 -i 19 -a 123 -x {0.0 5.0 4 ------- null}
+ -t 4.79049990399363 -s 3 -d 5 -p tcp -e 1040 -c 123 -i 19 -a 123 -x {0.0 5.0 4 ------- null}
- -t 4.79049990399363 -s 3 -d 5 -p tcp -e 1040 -c 123 -i 19 -a 123 -x {0.0 5.0 4 ------- null}
h -t 4.79049990399363 -s 3 -d 5 -p tcp -e 1040 -c 123 -i 19 -a 123 -x {0.0 5.0 -1 ------- null}
r -t 4.84850822399363 -s 3 -d 5 -p tcp -e 1040 -c 123 -i 19 -a 123 -x {0.0 5.0 4 ------- null}
+ -t 4.84850822399363 -s 5 -d 3 -p ack -e 40 -c 123 -i 20 -a 123 -x {5.0 0.0 4 ------- null}
- -t 4.84850822399363 -s 5 -d 3 -p ack -e 40 -c 123 -i 20 -a 123 -x {5.0 0.0 4 ------- null}
h -t 4.84850822399363 -s 5 -d 3 -p ack -e 40 -c 123 -i 20 -a 123 -x {5.0 0.0 -1 ------- null}
r -t 4.90650854399362 -s 5 -d 3 -p ack -e 40 -c 123 -i 20 -a 123 -x {5.0 0.0 4 ------- null}
+ -t 4.91150854399362 -s 3 -d 2 -p ack -e 40 -c 123 -i 20 -a 123 -x {5.0 0.0 4 ------- null}
- -t 4.91150854399362 -s 3 -d 2 -p ack -e 40 -c 123 -i 20 -a 123 -x {5.0 0.0 4 ------- null}
h -t 4.91150854399362 -s 3 -d 2 -p ack -e 40 -c 123 -i 20 -a 123 -x {5.0 0.0 -1 ------- null}
r -t 4.91652454399363 -s 3 -d 2 -p ack -e 40 -c 123 -i 20 -a 123 -x {5.0 0.0 4 ------- null}
+ -t 4.91874597694921 -s 0 -d 2 -p tcp -e 1040 -c 123 -i 21 -a 123 -x {0.0 5.0 5 ------- null}
- -t 4.91874597694921 -s 0 -d 2 -p tcp -e 1040 -c 123 -i 21 -a 123 -x {0.0 5.0 5 ------- null}
h -t 4.91874597694921 -s 0 -d 2 -p tcp -e 1040 -c 123 -i 21 -a 123 -x {0.0 5.0 -1 ------- null}
+ -t 4.92152454399363 -s 2 -d 0 -p ack -e 40 -c 123 -i 20 -a 123 -x {5.0 0.0 4 ------- null}
- -t 4.92152454399363 -s 2 -d 0 -p ack -e 40 -c 123 -i 20 -a 123 -x {5.0 0.0 4 ------- null}
h -t 4.92152454399363 -s 2 -d 0 -p ack -e 40 -c 123 -i 20 -a 123 -x {5.0 0.0 -1 ------- null}
+ -t 4.95059028876285 -s 1 -d 2 -p tcp -e 1040 -c 456 -i 22 -a 456 -x {1.0 4.0 5 ---A--- null}
- -t 4.95059028876285 -s 1 -d 2 -p tcp -e 1040 -c 456 -i 22 -a 456 -x {1.0 4.0 5 ---A--- null}
h -t 4.95059028876285 -s 1 -d 2 -p tcp -e 1040 -c 456 -i 22 -a 456 -x {1.0 4.0 -1 ---A--- null}
r -t 4.96875429694921 -s 0 -d 2 -p tcp -e 1040 -c 123 -i 21 -a 123 -x {0.0 5.0 5 ------- null}
r -t 4.97152486399362 -s 2 -d 0 -p ack -e 40 -c 123 -i 20 -a 123 -x {5.0 0.0 4 ------- null}
+ -t 4.97375429694921 -s 2 -d 3 -p tcp -e 1040 -c 123 -i 21 -a 123 -x {0.0 5.0 5 ------- null}
- -t 4.97375429694921 -s 2 -d 3 -p tcp -e 1040 -c 123 -i 21 -a 123 -x {0.0 5.0 5 ------- null}
h -t 4.97375429694921 -s 2 -d 3 -p tcp -e 1040 -c 123 -i 21 -a 123 -x {0.0 5.0 -1 ------- null}
r -t 4.97917029694921 -s 2 -d 3 -p tcp -e 1040 -c 123 -i 21 -a 123 -x {0.0 5.0 5 ------- null}
+ -t 4.98417029694921 -s 3 -d 5 -p tcp -e 1040 -c 123 -i 21 -a 123 -x {0.0 5.0 5 ------- null}
- -t 4.98417029694921 -s 3 -d 5 -p tcp -e 1040 -c 123 -i 21 -a 123 -x {0.0 5.0 5 ------- null}
h -t 4.98417029694921 -s 3 -d 5 -p tcp -e 1040 -c 123 -i 21 -a 123 -x {0.0 5.0 -1 ------- null}
r -t 5.04217861694921 -s 3 -d 5 -p tcp -e 1040 -c 123 -i 21 -a 123 -x {0.0 5.0 5 ------- null}
+ -t 5.04217861694921 -s 5 -d 3 -p ack -e 40 -c 123 -i 23 -a 123 -x {5.0 0.0 5 ------- null}
- -t 5.04217861694921 -s 5 -d 3 -p ack -e 40 -c 123 -i 23 -a 123 -x {5.0 0.0 5 ------- null}
h -t 5.04217861694921 -s 5 -d 3 -p ack -e 40 -c 123 -i 23 -a 123 -x {5.0 0.0 -1 ------- null}
r -t 5.05059860876285 -s 1 -d 2 -p tcp -e 1040 -c 456 -i 22 -a 456 -x {1.0 4.0 5 ---A--- null}
+ -t 5.05559860876285 -s 2 -d 3 -p tcp -e 1040 -c 456 -i 22 -a 456 -x {1.0 4.0 5 ---A--- null}
- -t 5.05559860876285 -s 2 -d 3 -p tcp -e 1040 -c 456 -i 22 -a 456 -x {1.0 4.0 5 ---A--- null}
h -t 5.05559860876285 -s 2 -d 3 -p tcp -e 1040 -c 456 -i 22 -a 456 -x {1.0 4.0 -1 ---A--- null}
r -t 5.06101460876285 -s 2 -d 3 -p tcp -e 1040 -c 456 -i 22 -a 456 -x {1.0 4.0 5 ---A--- null}
+ -t 5.06601460876285 -s 3 -d 4 -p tcp -e 1040 -c 456 -i 22 -a 456 -x {1.0 4.0 5 ---A--- null}
- -t 5.06601460876285 -s 3 -d 4 -p tcp -e 1040 -c 456 -i 22 -a 456 -x {1.0 4.0 5 ---A--- null}
h -t 5.06601460876285 -s 3 -d 4 -p tcp -e 1040 -c 456 -i 22 -a 456 -x {1.0 4.0 -1 ---A--- null}
r -t 5.10017893694921 -s 5 -d 3 -p ack -e 40 -c 123 -i 23 -a 123 -x {5.0 0.0 5 ------- null}
+ -t 5.10517893694921 -s 3 -d 2 -p ack -e 40 -c 123 -i 23 -a 123 -x {5.0 0.0 5 ------- null}
- -t 5.10517893694921 -s 3 -d 2 -p ack -e 40 -c 123 -i 23 -a 123 -x {5.0 0.0 5 ------- null}
h -t 5.10517893694921 -s 3 -d 2 -p ack -e 40 -c 123 -i 23 -a 123 -x {5.0 0.0 -1 ------- null}
r -t 5.11019493694921 -s 3 -d 2 -p ack -e 40 -c 123 -i 23 -a 123 -x {5.0 0.0 5 ------- null}
+ -t 5.11519493694921 -s 2 -d 0 -p ack -e 40 -c 123 -i 23 -a 123 -x {5.0 0.0 5 ------- null}
- -t 5.11519493694921 -s 2 -d 0 -p ack -e 40 -c 123 -i 23 -a 123 -x {5.0 0.0 5 ------- null}
h -t 5.11519493694921 -s 2 -d 0 -p ack -e 40 -c 123 -i 23 -a 123 -x {5.0 0.0 -1 ------- null}
r -t 5.11702292876285 -s 3 -d 4 -p tcp -e 1040 -c 456 -i 22 -a 456 -x {1.0 4.0 5 ---A--- null}
+ -t 5.11702292876285 -s 4 -d 3 -p ack -e 40 -c 456 -i 24 -a 456 -x {4.0 1.0 5 ------- null}
- -t 5.11702292876285 -s 4 -d 3 -p ack -e 40 -c 456 -i 24 -a 456 -x {4.0 1.0 5 ------- null}
h -t 5.11702292876285 -s 4 -d 3 -p ack -e 40 -c 456 -i 24 -a 456 -x {4.0 1.0 -1 ------- null}
r -t 5.16519525694921 -s 2 -d 0 -p ack -e 40 -c 123 -i 23 -a 123 -x {5.0 0.0 5 ------- null}
r -t 5.16802324876285 -s 4 -d 3 -p ack -e 40 -c 456 -i 24 -a 456 -x {4.0 1.0 5 ------- null}
+ -t 5.17302324876285 -s 3 -d 2 -p ack -e 40 -c 456 -i 24 -a 456 -x {4.0 1.0 5 ------- null}
- -t 5.17302324876285 -s 3 -d 2 -p ack -e 40 -c 456 -i 24 -a 456 -x {4.0 1.0 5 ------- null}
h -t 5.17302324876285 -s 3 -d 2 -p ack -e 40 -c 456 -i 24 -a 456 -x {4.0 1.0 -1 ------- null}
r -t 5.17803924876285 -s 3 -d 2 -p ack -e 40 -c 456 -i 24 -a 456 -x {4.0 1.0 5 ------- null}
+ -t 5.18303924876285 -s 2 -d 1 -p ack -e 40 -c 456 -i 24 -a 456 -x {4.0 1.0 5 ------- null}
- -t 5.18303924876285 -s 2 -d 1 -p ack -e 40 -c 456 -i 24 -a 456 -x {4.0 1.0 5 ------- null}
h -t 5.18303924876285 -s 2 -d 1 -p ack -e 40 -c 456 -i 24 -a 456 -x {4.0 1.0 -1 ------- null}
r -t 5.28303956876285 -s 2 -d 1 -p ack -e 40 -c 456 -i 24 -a 456 -x {4.0 1.0 5 ------- null}
+ -t 5.28303956876285 -s 1 -d 2 -p tcp -e 1040 -c 456 -i 25 -a 456 -x {1.0 4.0 6 ------- null}
- -t 5.28303956876285 -s 1 -d 2 -p tcp -e 1040 -c 456 -i 25 -a 456 -x {1.0 4.0 6 ------- null}
h -t 5.28303956876285 -s 1 -d 2 -p tcp -e 1040 -c 456 -i 25 -a 456 -x {1.0 4.0 -1 ------- null}
r -t 5.38304788876285 -s 1 -d 2 -p tcp -e 1040 -c 456 -i 25 -a 456 -x {1.0 4.0 6 ------- null}
+ -t 5.38804788876285 -s 2 -d 3 -p tcp -e 1040 -c 456 -i 25 -a 456 -x {1.0 4.0 6 ------- null}
- -t 5.38804788876285 -s 2 -d 3 -p tcp -e 1040 -c 456 -i 25 -a 456 -x {1.0 4.0 6 ------- null}
h -t 5.38804788876285 -s 2 -d 3 -p tcp -e 1040 -c 456 -i 25 -a 456 -x {1.0 4.0 -1 ------- null}
r -t 5.39346388876285 -s 2 -d 3 -p tcp -e 1040 -c 456 -i 25 -a 456 -x {1.0 4.0 6 ------- null}
+ -t 5.39846388876285 -s 3 -d 4 -p tcp -e 1040 -c 456 -i 25 -a 456 -x {1.0 4.0 6 ------- null}
- -t 5.39846388876285 -s 3 -d 4 -p tcp -e 1040 -c 456 -i 25 -a 456 -x {1.0 4.0 6 ------- null}
h -t 5.39846388876285 -s 3 -d 4 -p tcp -e 1040 -c 456 -i 25 -a 456 -x {1.0 4.0 -1 ------- null}
r -t 5.44947220876285 -s 3 -d 4 -p tcp -e 1040 -c 456 -i 25 -a 456 -x {1.0 4.0 6 ------- null}
+ -t 5.44947220876285 -s 4 -d 3 -p ack -e 40 -c 456 -i 26 -a 456 -x {4.0 1.0 6 ------- null}
- -t 5.44947220876285 -s 4 -d 3 -p ack -e 40 -c 456 -i 26 -a 456 -x {4.0 1.0 6 ------- null}